# vtk DataFile Version 5.1
vtk output
ASCII
DATASET POLYDATA
POINTS 1436 float
0 0 0 1 0 0 1 1 0 
0 1 0 0.125 0.125 -7.77753e-06 0.25 0.125 -2.06426e-05 
0.375 0.125 -3.01254e-05 0.5 0.125 -3.3483e-05 0.625 0.125 -3.01247e-05 
0.75 0.125 -2.06319e-05 0.875 0.125 -7.77839e-06 0.125 0.25 -2.06315e-05 
0.25 0.25 -5.53319e-05 0.375 0.25 -8.16795e-05 0.5 0.25 -9.11562e-05 
0.625 0.25 -8.16805e-05 0.75 0.25 -5.53346e-05 0.875 0.25 -2.06439e-05 
0.125 0.375 -3.01244e-05 0.25 0.375 -8.16764e-05 0.375 0.375 -0.00012141 
0.5 0.375 -0.000135815 0.625 0.375 -0.000121412 0.75 0.375 -8.16814e-05 
0.875 0.375 -3.01244e-05 0.125 0.5 -3.34793e-05 0.25 0.5 -9.11533e-05 
0.375 0.5 -0.000135813 0.5 0.5 -0.000152045 0.625 0.5 -0.000135815 
0.75 0.5 -9.11549e-05 0.875 0.5 -3.34802e-05 0.125 0.625 -3.01249e-05 
0.25 0.625 -8.16808e-05 0.375 0.625 -0.000121411 0.5 0.625 -0.000135814 
0.625 0.625 -0.000121413 0.75 0.625 -8.16811e-05 0.875 0.625 -3.01242e-05 
0.125 0.75 -2.0644e-05 0.25 0.75 -5.53358e-05 0.375 0.75 -8.16799e-05 
0.5 0.75 -9.11544e-05 0.625 0.75 -8.16836e-05 0.75 0.75 -5.53376e-05 
0.875 0.75 -2.06343e-05 0.125 0.875 -7.78676e-06 0.25 0.875 -2.06343e-05 
0.375 0.875 -3.01251e-05 0.5 0.875 -3.348e-05 0.625 0.875 -3.01245e-05 
0.75 0.875 -2.06432e-05 0.875 0.875 -7.78557e-06 0.03125 0 0 
0.0625 0 0 0.09375 0 0 0.125 0 0 
0.15625 0 0 0.1875 0 0 0.21875 0 0 
0.25 0 0 0.28125 0 0 0.3125 0 0 
0.34375 0 0 0.375 0 0 0.40625 0 0 
0.4375 0 0 0.46875 0 0 0.5 0 0 
0.53125 0 0 0.5625 0 0 0.59375 0 0 
0.625 0 0 0.65625 0 0 0.6875 0 0 
0.71875 0 0 0.75 0 0 0.78125 0 0 
0.8125 0 0 0.84375 0 0 0.875 0 0 
0.90625 0 0 0.9375 0 0 0.96875 0 0 
1 0.03125 0 1 0.0625 0 1 0.09375 0 
1 0.125 0 1 0.15625 0 1 0.1875 0 
1 0.21875 0 1 0.25 0 1 0.28125 0 
1 0.3125 0 1 0.34375 0 1 0.375 0 
1 0.40625 0 1 0.4375 0 1 0.46875 0 
1 0.5 0 1 0.53125 0 1 0.5625 0 
1 0.59375 0 1 0.625 0 1 0.65625 0 
1 0.6875 0 1 0.71875 0 1 0.75 0 
1 0.78125 0 1 0.8125 0 1 0.84375 0 
1 0.875 0 1 0.90625 0 1 0.9375 0 
1 0.96875 0 0.96875 1 0 0.9375 1 0 
0.90625 1 0 0.875 1 0 0.84375 1 0 
0.8125 1 0 0.78125 1 0 0.75 1 0 
0.71875 1 0 0.6875 1 0 0.65625 1 0 
0.625 1 0 0.59375 1 0 0.5625 1 0 
0.53125 1 0 0.5 1 0 0.46875 1 0 
0.4375 1 0 0.40625 1 0 0.375 1 0 
0.34375 1 0 0.3125 1 0 0.28125 1 0 
0.25 1 0 0.21875 1 0 0.1875 1 0 
0.15625 1 0 0.125 1 0 0.09375 1 0 
0.0625 1 0 0.03125 1 0 0 0.96875 0 
0 0.9375 0 0 0.90625 0 0 0.875 0 
0 0.84375 0 0 0.8125 0 0 0.78125 0 
0 0.75 0 0 0.71875 0 0 0.6875 0 
0 0.65625 0 0 0.625 0 0 0.59375 0 
0 0.5625 0 0 0.53125 0 0 0.5 0 
0 0.46875 0 0 0.4375 0 0 0.40625 0 
0 0.375 0 0 0.34375 0 0 0.3125 0 
0 0.28125 0 0 0.25 0 0 0.21875 0 
0 0.1875 0 0 0.15625 0 0 0.125 0 
0 0.09375 0 0 0.0625 0 0 0.03125 0 
0.0208333 0.0208333 -1.77296e-09 0.0416667 0.0416667 -1.34121e-07 0.0625 0.0625 -6.82728e-07 
0.0833333 0.0833333 -1.96934e-06 0.104167 0.104167 -4.27057e-06 0.979167 0.0208333 -1.7751e-09 
0.958333 0.0416667 -1.34164e-07 0.9375 0.0625 -6.8289e-07 0.916667 0.0833333 -1.96969e-06 
0.895833 0.104167 -4.27118e-06 0.979167 0.979167 -2.24139e-09 0.958333 0.958333 -1.32069e-07 
0.9375 0.9375 -6.86324e-07 0.916667 0.916667 -1.977e-06 0.895833 0.895833 -4.28078e-06 
0.0208333 0.979167 -2.24126e-09 0.0416667 0.958333 -1.32081e-07 0.0625 0.9375 -6.86388e-07 
0.0833333 0.916667 -1.97719e-06 0.104167 0.895833 -4.28123e-06 0.15625 0.125 -1.09908e-05 
0.1875 0.125 -1.42931e-05 0.21875 0.125 -1.75479e-05 0.28125 0.125 -2.34951e-05 
0.3125 0.125 -2.60535e-05 0.34375 0.125 -2.82743e-05 0.40625 0.125 -3.15794e-05 
0.4375 0.125 -3.26305e-05 0.46875 0.125 -3.32658e-05 0.53125 0.125 -3.32686e-05 
0.5625 0.125 -3.26327e-05 0.59375 0.125 -3.15801e-05 0.65625 0.125 -2.82688e-05 
0.6875 0.125 -2.60436e-05 0.71875 0.125 -2.34822e-05 0.78125 0.125 -1.75399e-05 
0.8125 0.125 -1.42911e-05 0.84375 0.125 -1.09932e-05 0.125 0.15625 -1.09931e-05 
0.125 0.1875 -1.42911e-05 0.125 0.21875 -1.75381e-05 0.25 0.15625 -2.92124e-05 
0.25 0.1875 -3.80812e-05 0.25 0.21875 -4.68852e-05 0.375 0.15625 -4.27772e-05 
0.375 0.1875 -5.5929e-05 0.375 0.21875 -6.90423e-05 0.5 0.15625 -4.76026e-05 
0.5 0.1875 -6.23078e-05 0.5 0.21875 -7.69884e-05 0.625 0.15625 -4.2776e-05 
0.625 0.1875 -5.5931e-05 0.625 0.21875 -6.90453e-05 0.75 0.15625 -2.92078e-05 
0.75 0.1875 -3.80812e-05 0.75 0.21875 -4.68876e-05 0.875 0.15625 -1.0992e-05 
0.875 0.1875 -1.42921e-05 0.875 0.21875 -1.75477e-05 0.15625 0.25 -2.92063e-05 
0.1875 0.25 -3.80779e-05 0.21875 0.25 -4.68842e-05 0.28125 0.25 -6.31951e-05 
0.3125 0.25 -7.02937e-05 0.34375 0.25 -7.6489e-05 0.40625 0.25 -8.57875e-05 
0.4375 0.25 -8.8759e-05 0.46875 0.25 -9.0555e-05 0.53125 0.25 -9.05552e-05 
0.5625 0.25 -8.87582e-05 0.59375 0.25 -8.57885e-05 0.65625 0.25 -7.64899e-05 
0.6875 0.25 -7.02933e-05 0.71875 0.25 -6.31963e-05 0.78125 0.25 -4.68878e-05 
0.8125 0.25 -3.80832e-05 0.84375 0.25 -2.92152e-05 0.125 0.28125 -2.34833e-05 
0.125 0.3125 -2.60433e-05 0.125 0.34375 -2.82682e-05 0.25 0.28125 -6.31938e-05 
0.25 0.3125 -7.02924e-05 0.25 0.34375 -7.64882e-05 0.375 0.28125 -9.3487e-05 
0.375 0.3125 -0.000104183 0.375 0.34375 -0.000113547 0.5 0.28125 -0.000104411 
0.5 0.3125 -0.00011643 0.5 0.34375 -0.000126961 0.625 0.28125 -9.34881e-05 
0.625 0.3125 -0.000104185 0.625 0.34375 -0.000113548 0.75 0.28125 -6.31975e-05 
0.75 0.3125 -7.02975e-05 0.75 0.34375 -7.64941e-05 0.875 0.28125 -2.34955e-05 
0.875 0.3125 -2.60523e-05 0.875 0.34375 -2.82737e-05 0.15625 0.375 -4.27743e-05 
0.1875 0.375 -5.59257e-05 0.21875 0.375 -6.90382e-05 0.28125 0.375 -9.3483e-05 
0.3125 0.375 -0.000104179 0.34375 0.375 -0.000113543 0.40625 0.375 -0.000127647 
0.4375 0.375 -0.000132164 0.46875 0.375 -0.000134899 0.53125 0.375 -0.000134899 
0.5625 0.375 -0.000132165 0.59375 0.375 -0.000127648 0.65625 0.375 -0.000113546 
0.6875 0.375 -0.000104182 0.71875 0.375 -9.34873e-05 0.78125 0.375 -6.90444e-05 
0.8125 0.375 -5.59297e-05 0.84375 0.375 -4.27755e-05 0.125 0.40625 -3.15798e-05 
0.125 0.4375 -3.26307e-05 0.125 0.46875 -3.32661e-05 0.25 0.40625 -8.57843e-05 
0.25 0.4375 -8.87569e-05 0.25 0.46875 -9.05544e-05 0.375 0.40625 -0.000127647 
0.375 0.4375 -0.000132165 0.375 0.46875 -0.000134899 0.5 0.40625 -0.000142841 
0.5 0.4375 -0.000147931 0.5 0.46875 -0.000151013 0.625 0.40625 -0.000127649 
0.625 0.4375 -0.000132167 0.625 0.46875 -0.000134901 0.75 0.40625 -8.57884e-05 
0.75 0.4375 -8.87602e-05 0.75 0.46875 -9.0557e-05 0.875 0.40625 -3.15772e-05 
0.875 0.4375 -3.26269e-05 0.875 0.46875 -3.32629e-05 0.15625 0.5 -4.75957e-05 
0.1875 0.5 -6.23002e-05 0.21875 0.5 -7.69845e-05 0.28125 0.5 -0.000104406 
0.3125 0.5 -0.000116424 0.34375 0.5 -0.000126958 0.40625 0.5 -0.000142839 
0.4375 0.5 -0.000147929 0.46875 0.5 -0.000151012 0.53125 0.5 -0.000151013 
0.5625 0.5 -0.000147931 0.59375 0.5 -0.000142841 0.65625 0.5 -0.00012696 
0.6875 0.5 -0.000116427 0.71875 0.5 -0.000104408 0.78125 0.5 -7.6986e-05 
0.8125 0.5 -6.23027e-05 0.84375 0.5 -4.75967e-05 0.125 0.53125 -3.3261e-05 
0.125 0.5625 -3.26271e-05 0.125 0.59375 -3.15785e-05 0.25 0.53125 -9.05526e-05 
0.25 0.5625 -8.87589e-05 0.25 0.59375 -8.57894e-05 0.375 0.53125 -0.000134898 
0.375 0.5625 -0.000132165 0.375 0.59375 -0.00012765 0.5 0.53125 -0.000151012 
0.5 0.5625 -0.00014793 0.5 0.59375 -0.000142841 0.625 0.53125 -0.000134899 
0.625 0.5625 -0.000132165 0.625 0.59375 -0.00012765 0.75 0.53125 -9.05529e-05 
0.75 0.5625 -8.87588e-05 0.75 0.59375 -8.57905e-05 0.875 0.53125 -3.32658e-05 
0.875 0.5625 -3.26313e-05 0.875 0.59375 -3.15812e-05 0.15625 0.625 -4.27754e-05 
0.1875 0.625 -5.59267e-05 0.21875 0.625 -6.90424e-05 0.28125 0.625 -9.34869e-05 
0.3125 0.625 -0.000104179 0.34375 0.625 -0.000113544 0.40625 0.625 -0.000127649 
0.4375 0.625 -0.000132164 0.46875 0.625 -0.000134898 0.53125 0.625 -0.0001349 
0.5625 0.625 -0.000132167 0.59375 0.625 -0.000127651 0.65625 0.625 -0.000113547 
0.6875 0.625 -0.000104183 0.71875 0.625 -9.34879e-05 0.78125 0.625 -6.90432e-05 
0.8125 0.625 -5.59287e-05 0.84375 0.625 -4.27728e-05 0.125 0.65625 -2.82731e-05 
0.125 0.6875 -2.60534e-05 0.125 0.71875 -2.34957e-05 0.25 0.65625 -7.64901e-05 
0.25 0.6875 -7.02962e-05 0.25 0.71875 -6.31991e-05 0.375 0.65625 -0.000113544 
0.375 0.6875 -0.000104182 0.375 0.71875 -9.34882e-05 0.5 0.65625 -0.000126959 
0.5 0.6875 -0.000116425 0.5 0.71875 -0.000104408 0.625 0.65625 -0.000113546 
0.625 0.6875 -0.000104181 0.625 0.71875 -9.34884e-05 0.75 0.65625 -7.64896e-05 
0.75 0.6875 -7.02948e-05 0.75 0.71875 -6.31991e-05 0.875 0.65625 -2.82681e-05 
0.875 0.6875 -2.60447e-05 0.875 0.71875 -2.34854e-05 0.15625 0.75 -2.92157e-05 
0.1875 0.75 -3.80847e-05 0.21875 0.75 -4.68887e-05 0.28125 0.75 -6.31973e-05 
0.3125 0.75 -7.02932e-05 0.34375 0.75 -7.64889e-05 0.40625 0.75 -8.57884e-05 
0.4375 0.75 -8.87574e-05 0.46875 0.75 -9.05526e-05 0.53125 0.75 -9.05555e-05 
0.5625 0.75 -8.87623e-05 0.59375 0.75 -8.57918e-05 0.65625 0.75 -7.64938e-05 
0.6875 0.75 -7.02994e-05 0.71875 0.75 -6.32002e-05 0.78125 0.75 -4.68892e-05 
0.8125 0.75 -3.80842e-05 0.84375 0.75 -2.92085e-05 0.125 0.78125 -1.75508e-05 
0.125 0.8125 -1.43007e-05 0.125 0.84375 -1.10002e-05 0.25 0.78125 -4.68873e-05 
0.25 0.8125 -3.8083e-05 0.25 0.84375 -2.921e-05 0.375 0.78125 -6.90418e-05 
0.375 0.8125 -5.59293e-05 0.375 0.84375 -4.27759e-05 0.5 0.78125 -7.69849e-05 
0.5 0.8125 -6.23013e-05 0.5 0.84375 -4.75984e-05 0.625 0.78125 -6.90459e-05 
0.625 0.8125 -5.59301e-05 0.625 0.84375 -4.27755e-05 0.75 0.78125 -4.68907e-05 
0.75 0.8125 -3.80866e-05 0.75 0.84375 -2.92152e-05 0.875 0.78125 -1.7544e-05 
0.875 0.8125 -1.42973e-05 0.875 0.84375 -1.09989e-05 0.15625 0.875 -1.1e-05 
0.1875 0.875 -1.42974e-05 0.21875 0.875 -1.75435e-05 0.28125 0.875 -2.34849e-05 
0.3125 0.875 -2.60457e-05 0.34375 0.875 -2.82693e-05 0.40625 0.875 -3.15814e-05 
0.4375 0.875 -3.26333e-05 0.46875 0.875 -3.32668e-05 0.53125 0.875 -3.32631e-05 
0.5625 0.875 -3.26318e-05 0.59375 0.875 -3.15782e-05 0.65625 0.875 -2.82739e-05 
0.6875 0.875 -2.60567e-05 0.71875 0.875 -2.34953e-05 0.78125 0.875 -1.75503e-05 
0.8125 0.875 -1.43021e-05 0.84375 0.875 -1.09995e-05 0.172851 0.0264652 -7.81044e-07 
[...]
CELL_DATA 2742
FIELD FieldData 1
material 1 2742 double
1 1 1 1 1 1 1 1 1 
1 1 1 1 1 1 1 1 1 
1 1 1 1 1 1 1 1 1 
1 1 1 1 1 1 1 1 1 
1 1 1 1 1 1 1 1 1 
1 1 1 1 1 1 1 1 1 
1 1 1 1 1 1 1 1 1 
1 1 1 1 1 1 1 1 1 
1 1 1 1 1 1 1 1 1 
1 1 1 1 1 1 1 1 1 
1 1 1 1 1 1 1 1 1 
1 1 1 1 1 1 1 1 1 
1 1 1 1 1 1 1 1 1 
1 1 1 1 1 1 1 1 1 
1 1 1 1 1 1 1 1 1 
1 1 1 1 1 1 1 1 1 
1 1 1 1 1 1 1 1 1 
1 1 1 1 1 1 1 1 1 
1 1 1 1 1 1 1 1 1 
1 1 1 1 1 1 1 1 1 
1 1 1 1 1 1 1 1 1 
1 1 1 1 1 1 1 1 1 
1 1 1 1 1 1 1 1 1 
1 1 1 1 1 1 1 1 1 
1 1 1 1 1 1 1 1 1 
1 1 1 1 1 1 1 1 1 
1 1 1 1 1 1 1 1 1 
1 1 1 1 1 1 1 1 1 
1 1 1 1 1 1 1 1 1 
1 1 1 1 1 1 1 1 1 
1 1 1 1 1 1 1 1 1 
1 1 1 1 1 1 1 1 1 
1 1 1 1 1 1 1 1 1 
1 1 1 1 1 1 1 1 1 
1 1 1 1 1 1 1 1 1 
1 1 1 1 1 1 1 1 1 
1 1 1 1 1 1 1 1 1 
1 1 1 1 1 1 1 1 1 
1 1 1 1 1 1 1 1 1 
1 1 1 1 1 1 1 1 1 
1 1 1 1 1 1 1 1 1 
1 1 1 1 1 1 1 1 1 
1 1 1 1 1 1 1 1 1 
1 1 1 1 1 1 1 1 1 
1 1 1 1 1 1 1 1 1 
1 1 1 1 1 1 1 1 1 
1 1 1 1 1 1 1 1 1 
1 1 1 1 1 1 1 1 1 
1 1 1 1 1 1 1 1 1 
1 1 1 1 1 1 1 1 1 
1 1 1 1 1 1 1 1 1 
1 1 1 1 1 1 1 1 1 
1 1 1 1 1 1 1 1 1 
1 1 1 1 1 1 1 1 1 
1 1 1 1 1 1 1 1 1 
1 1 1 1 1 1 1 1 1 
1 1 1 1 1 1 1 1 1 
1 1 1 1 1 1 1 1 1 
1 1 1 1 1 1 1 1 1 
1 1 1 1 1 1 1 1 1 
1 1 1 1 1 1 1 1 1 
1 1 1 1 1 1 1 1 1 
1 1 1 1 1 1 1 1 1 
1 1 1 1 1 1 1 1 1 
1 1 1 1 1 1 1 1 1 
1 1 1 1 1 1 1 1 1 
1 1 1 1 1 1 1 1 1 
1 1 1 1 1 1 1 1 1 
1 1 1 1 1 1 1 1 1 
1 1 1 1 1 1 1 1 1 
1 1 1 1 1 1 1 1 1 
1 1 1 1 1 1 1 1 1 
1 1 1 1 1 1 1 1 1 
1 1 1 1 1 1 1 1 1 
1 1 1 1 1 1 1 1 1 
1 1 1 1 1 1 1 1 1 
1 1 1 1 1 1 1 1 1 
1 1 1 1 1 1 1 1 1 
1 1 1 1 1 1 1 1 1 
1 1 1 1 1 1 1 1 1 
1 1 1 1 1 1 1 1 1 
1 1 1 1 1 1 1 1 1 
1 1 1 1 1 1 1 1 1 
1 1 1 1 1 1 1 1 1 
1 1 1 1 1 1 1 1 1 
1 1 1 1 1 1 1 1 1 
1 1 1 1 1 1 1 1 1 
1 1 1 1 1 1 1 1 1 
1 1 1 1 1 1 1 1 1 
1 1 1 1 1 1 1 1 1 
1 1 1 1 1 1 1 1 1 
1 1 1 1 1 1 1 1 1 
1 1 1 1 1 1 1 1 1 
1 1 1 1 1 1 1 1 1 
1 1 1 1 1 1 1 1 1 
1 1 1 1 1 1 1 1 1 
1 1 1 1 1 1 1 1 1 
1 1 1 1 1 1 1 1 1 
1 1 1 1 1 1 1 1 1 
1 1 1 1 1 1 1 1 1 
1 1 1 1 1 1 1 1 1 
1 1 1 1 1 1 1 1 1 
1 1 1 1 1 1 1 1 1 
1 1 1 1 1 1 1 1 1 
1 1 1 1 1 1 1 1 1 
1 1 1 1 1 1 1 1 1 
1 1 1 1 1 1 1 1 1 
1 1 1 1 1 1 1 1 1 
1 1 1 1 1 1 1 1 1 
1 1 1 1 1 1 1 1 1 
1 1 1 1 1 1 1 1 1 
1 1 1 1 1 1 1 1 1 
1 1 1 1 1 1 1 1 1 
1 1 1 1 1 1 1 1 1 
1 1 1 1 1 1 1 1 1 
1 1 1 1 1 1 1 1 1 
1 1 1 1 1 1 1 1 1 
1 1 1 1 1 1 1 1 1 
1 1 1 1 1 1 1 1 1 
1 1 1 1 1 1 1 1 1 
1 1 1 1 1 1 1 1 1 
1 1 1 1 1 1 1 1 1 
1 1 1 1 1 1 1 1 1 
1 1 1 1 1 1 1 1 1 
1 1 1 1 1 1 1 1 1 
1 1 1 1 1 1 1 1 1 
1 1 1 1 1 1 1 1 1 
1 1 1 1 1 1 1 1 1 
1 1 1 1 1 1 1 1 1 
1 1 1 1 1 1 1 1 1 
1 1 1 1 1 1 1 1 1 
1 1 1 1 1 1 1 1 1 
1 1 1 1 1 1 1 1 1 
1 1 1 1 1 1 1 1 1 
1 1 1 1 1 1 1 1 1 
1 1 1 1 1 1 1 1 1 
1 1 1 1 1 1 1 1 1 
1 1 1 1 1 1 1 1 1 
1 1 1 1 1 1 1 1 1 
1 1 1 1 1 1 1 1 1 
1 1 1 1 1 1 1 1 1 
1 1 1 1 1 1 1 1 1 
1 1 1 1 1 1 1 1 1 
1 1 1 1 1 1 1 1 1 
1 1 1 1 1 1 1 1 1 
1 1 1 1 1 1 1 1 1 
1 1 1 1 1 1 1 1 1 
1 1 1 1 1 1 1 1 1 
1 1 1 1 1 1 1 1 1 
1 1 1 1 1 1 1 1 1 
1 1 1 1 1 1 1 1 1 
1 1 1 1 1 1 1 1 1 
1 1 1 1 1 1 1 1 1 
1 1 1 1 1 1 1 1 1 
1 1 1 1 1 1 1 1 1 
1 1 1 1 1 1 1 1 1 
1 1 1 1 1 1 1 1 1 
1 1 1 1 1 1 1 1 1 
1 1 1 1 1 1 1 1 1 
1 1 1 1 1 1 1 1 1 
1 1 1 1 1 1 1 1 1 
1 1 1 1 1 1 1 1 1 
1 1 1 1 1 1 1 1 1 
1 1 1 1 1 1 1 1 1 
1 1 1 1 1 1 1 1 1 
1 1 1 1 1 1 1 1 1 
1 1 1 1 1 1 1 1 1 
1 1 1 1 1 1 1 1 1 
1 1 1 1 1 1 1 1 1 
1 1 1 1 1 1 1 1 1 
1 1 1 1 1 1 1 1 1 
1 1 1 1 1 1 1 1 1 
1 1 1 1 1 1 1 1 1 
1 1 1 1 1 1 1 1 1 
1 1 1 1 1 1 1 1 1 
1 1 1 1 1 1 1 1 1 
1 1 1 1 1 1 1 1 1 
1 1 1 1 1 1 1 1 1 
1 1 1 1 1 1 1 1 1 
1 1 1 1 1 1 1 1 1 
1 1 1 1 1 1 1 1 1 
1 1 1 1 1 1 1 1 1 
1 1 1 1 1 1 1 1 1 
1 1 1 1 1 1 1 1 1 
1 1 1 1 1 1 1 1 1 
1 1 1 1 1 1 1 1 1 
1 1 1 1 1 1 1 1 1 
1 1 1 1 1 1 1 1 1 
1 1 1 1 1 1 1 1 1 
1 1 1 1 1 1 1 1 1 
1 1 1 1 1 1 1 1 1 
1 1 1 1 1 1 1 1 1 
1 1 1 1 1 1 1 1 1 
1 1 1 1 1 1 1 1 1 
1 1 1 1 1 1 1 1 1 
1 1 1 1 1 1 1 1 1 
1 1 1 1 1 1 1 1 1 
1 1 1 1 1 1 1 1 1 
1 1 1 1 1 1 1 1 1 
1 1 1 1 1 1 1 1 1 
1 1 1 1 1 1 1 1 1 
1 1 1 1 1 1 1 1 1 
1 1 1 1 1 1 1 1 1 
1 1 1 1 1 1 1 1 1 
1 1 1 1 1 1 1 1 1 
1 1 1 1 1 1 1 1 1 
1 1 1 1 1 1 1 1 1 
1 1 1 1 1 1 1 1 1 
1 1 1 1 1 1 1 1 1 
1 1 1 1 1 1 1 1 1 
1 1 1 1 1 1 1 1 1 
1 1 1 1 1 1 1 1 1 
1 1 1 1 1 1 1 1 1 
1 1 1 1 1 1 1 1 1 
1 1 1 1 1 1 1 1 1 
1 1 1 1 1 1 1 1 1 
1 1 1 1 1 1 1 1 1 
1 1 1 1 1 1 1 1 1 
1 1 1 1 1 1 1 1 1 
1 1 1 1 1 1 1 1 1 
1 1 1 1 1 1 1 1 1 
1 1 1 1 1 1 1 1 1 
1 1 1 1 1 1 1 1 1 
1 1 1 1 1 1 1 1 1 
1 1 1 1 1 1 1 1 1 
1 1 1 1 1 1 1 1 1 
1 1 1 1 1 1 1 1 1 
1 1 1 1 1 1 1 1 1 
1 1 1 1 1 1 1 1 1 
1 1 1 1 1 1 1 1 1 
1 1 1 1 1 1 1 1 1 
1 1 1 1 1 1 1 1 1 
1 1 1 1 1 1 1 1 1 
1 1 1 1 1 1 1 1 1 
1 1 1 1 1 1 1 1 1 
1 1 1 1 1 1 1 1 1 
1 1 1 1 1 1 1 1 1 
1 1 1 1 1 1 1 1 1 
1 1 1 1 1 1 1 1 1 
1 1 1 1 1 1 1 1 1 
1 1 1 1 1 1 1 1 1 
1 1 1 1 1 1 1 1 1 
1 1 1 1 1 1 1 1 1 
1 1 1 1 1 1 1 1 1 
1 1 1 1 1 1 1 1 1 
1 1 1 1 1 1 1 1 1 
1 1 1 1 1 1 1 1 1 
1 1 1 1 1 1 1 1 1 
1 1 1 1 1 1 1 1 1 
1 1 1 1 1 1 1 1 1 
1 1 1 1 1 1 1 1 1 
1 1 1 1 1 1 1 1 1 
1 1 1 1 1 1 1 1 1 
1 1 1 1 1 1 1 1 1 
1 1 1 1 1 1 1 1 1 
1 1 1 1 1 1 1 1 1 
1 1 1 1 1 1 1 1 1 
1 1 1 1 1 1 1 1 1 
1 1 1 1 1 1 1 1 1 
1 1 1 1 1 1 1 1 1 
1 1 1 1 1 1 1 1 1 
1 1 1 1 1 1 1 1 1 
1 1 1 1 1 1 1 1 1 
1 1 1 1 1 1 1 1 1 
1 1 1 1 1 1 1 1 1 
1 1 1 1 1 1 1 1 1 
1 1 1 1 1 1 1 1 1 
1 1 1 1 1 1 1 1 1 
1 1 1 1 1 1 1 1 1 
1 1 1 1 1 1 1 1 1 
1 1 1 1 1 1 1 1 1 
1 1 1 1 1 1 1 1 1 
1 1 1 1 1 1 1 1 1 
1 1 1 1 1 1 1 1 1 
1 1 1 1 1 1 1 1 1 
1 1 1 1 1 1 1 1 1 
1 1 1 1 1 1 1 1 1 
1 1 1 1 1 1 1 1 1 
1 1 1 1 1 1 1 1 1 
1 1 1 1 1 1 1 1 1 
1 1 1 1 1 1 1 1 1 
1 1 1 1 1 1 1 1 1 
1 1 1 1 1 1 1 1 1 
1 1 1 1 1 1 1 1 1 
1 1 1 1 1 1 1 1 1 
1 1 1 1 1 1 1 1 1 
1 1 1 1 1 1 1 1 1 
1 1 1 1 1 1 1 1 1 
1 1 1 1 1 1 1 1 1 
1 1 1 1 1 1 1 1 1 
1 1 1 1 1 1 1 1 1 
1 1 1 1 1 1 1 1 1 
1 1 1 1 1 1 1 1 1 
1 1 1 1 1 1 1 1 1 
1 1 1 1 1 1 1 1 1 
1 1 1 1 1 1 1 1 1 
1 1 1 1 1 1 1 1 1 
1 1 1 1 1 1 1 1 1 
1 1 1 1 1 1 1 1 1 
1 1 1 1 1 1 1 1 1 
1 1 1 1 1 1 1 1 1 
1 1 1 1 1 1 1 1 1 
1 1 1 1 1 1 1 1 1 
1 1 1 1 1 1 1 1 1 
1 1 1 1 1 1 
POINT_DATA 1436
NORMALS normals double
0 0 1 0 0 1 0 0 1 
0 0 1 9.9730642658e-05 9.984443009e-05 0.99999999004 9.5575987179e-05 0.00026489037138 0.99999996035 
5.3022244774e-05 0.00039006451353 0.99999992252 2.2654635105e-07 0.00043485051856 0.99999990545 -5.2915831915e-05 0.00039001427641 0.99999992254 
-9.5450084293e-05 0.00026507613556 0.99999996031 -9.9842327779e-05 9.9745931645e-05 0.99999999004 0.00026504776444 9.5492527926e-05 0.99999996032 
0.00026203453647 0.00026198640408 0.99999993135 0.00014910912107 0.00039272071964 0.99999991177 5.4351436521e-09 0.00044058723857 0.99999990294 
-0.0001491041536 0.00039272369999 0.99999991177 -0.00026197430155 0.00026201170659 0.99999993136 -0.00026491987401 9.5508450229e-05 0.99999996035 
0.00038999923951 5.289304117e-05 0.99999992255 0.00039276671705 0.00014907353765 0.99999991176 0.00022623495603 0.00022619196288 0.99999994883 
7.3904910173e-09 0.00025471543925 0.99999996756 -0.00022621625858 0.00022619692492 0.99999994883 -0.0003927362258 0.0001490542797 0.99999991177 
-0.00039004657889 5.2937062391e-05 0.99999992253 0.00043477557561 -8.8573444549e-08 0.99999990549 0.00044061835075 -1.504107255e-08 0.99999990293 
0.00025476681179 1.9989661333e-09 0.99999996755 1.2998176674e-08 -1.2548498801e-09 1 -0.00025476982392 -1.3446440963e-08 0.99999996755 
-0.00044063746877 -5.7953839417e-08 0.99999990292 -0.00043480073009 1.8447801136e-07 0.99999990547 0.00039002121122 -5.3001688078e-05 0.99999992254 
0.00039271944597 -0.00014913650375 0.99999991176 0.00022621226581 -0.00022624980952 0.99999994882 3.306083906e-08 -0.00025474938478 0.99999996755 
-0.00022624534394 -0.00022621294537 0.99999994882 -0.0003927788943 -0.00014915117659 0.99999991174 -0.00038999204574 -5.2966610219e-05 0.99999992255 
0.00026495207569 -9.5525946155e-05 0.99999996034 0.00026197267139 -0.00026204731154 0.99999993135 0.00014911466616 -0.00039277387298 0.99999991175 
5.0915291385e-08 -0.00044060865705 0.99999990293 -0.00014912287468 -0.00039271320087 0.99999991177 -0.00026204914763 -0.00026198843197 0.99999993135 
-0.00026506761167 -9.5430754698e-05 0.99999996032 9.9688564179e-05 -9.9598967884e-05 0.99999999007 9.5429601163e-05 -0.00026507916116 0.99999996031 
5.2922001793e-05 -0.00039001433643 0.99999992254 -1.5547805136e-08 -0.00043480221581 0.99999990547 -5.2965145275e-05 -0.00039002713994 0.99999992254 
-9.5485117857e-05 -0.00026495633556 0.99999996034 -9.9572389505e-05 -9.9644495075e-05 0.99999999008 0 0 1 
0 0 1 0 0 1 0 0 1 
0 0 1 0 0 1 0 0 1 
0 0 1 0 0 1 0 0 1 
0 0 1 0 0 1 0 0 1 
0 0 1 0 0 1 0 0 1 
0 0 1 0 0 1 0 0 1 
0 0 1 0 0 1 0 0 1 
0 0 1 0 0 1 0 0 1 
0 0 1 0 0 1 0 0 1 
0 0 1 0 0 1 0 0 1 
0 0 1 0 0 1 0 0 1 
0 0 1 0 0 1 0 0 1 
0 0 1 0 0 1 0 0 1 
0 0 1 0 0 1 0 0 1 
0 0 1 0 0 1 0 0 1 
0 0 1 0 0 1 0 0 1 
0 0 1 0 0 1 0 0 1 
0 0 1 0 0 1 0 0 1 
0 0 1 0 0 1 0 0 1 
0 0 1 0 0 1 0 0 1 
0 0 1 0 0 1 0 0 1 
0 0 1 0 0 1 0 0 1 
0 0 1 0 0 1 0 0 1 
0 0 1 0 0 1 0 0 1 
0 0 1 0 0 1 0 0 1 
0 0 1 0 0 1 0 0 1 
0 0 1 0 0 1 0 0 1 
0 0 1 0 0 1 0 0 1 
0 0 1 0 0 1 0 0 1 
0 0 1 0 0 1 0 0 1 
0 0 1 0 0 1 0 0 1 
0 0 1 0 0 1 0 0 1 
0 0 1 0 0 1 0 0 1 
0 0 1 0 0 1 0 0 1 
0 0 1 0 0 1 0 0 1 
0 0 1 0 0 1 0 0 1 
0 0 1 0 0 1 0 0 1 
0 0 1 0 0 1 0 0 1 
0 0 1 0 0 1 0 0 1 
0 0 1 0 0 1 0 0 1 
0 0 1 0 0 1 0 0 1 
6.1200081946e-07 5.9053206084e-07 1 7.1747303603e-06 7.0180491234e-06 0.99999999995 2.0605485322e-05 2.0928855346e-05 0.99999999957 
4.1985319432e-05 4.2237727342e-05 0.99999999823 6.8984595092e-05 6.9016860225e-05 0.99999999524 -5.90827435e-07 6.123058166e-07 1 
-7.0198903055e-06 7.1766238632e-06 0.99999999995 -2.0932761853e-05 2.0609229787e-05 0.99999999957 -4.2243406188e-05 4.1990420765e-05 0.99999999823 
-6.9022241709e-05 6.8991505831e-05 0.99999999524 -6.1470954007e-07 -5.5873303412e-07 1 -7.179321766e-06 -6.9121907468e-06 0.99999999995 
-2.0841675963e-05 -2.0955754122e-05 0.99999999956 -4.2268672038e-05 -4.218763722e-05 0.99999999822 -6.9018795352e-05 -6.9157839103e-05 0.99999999523 
5.5875672606e-07 -6.1476239302e-07 1 6.9129662119e-06 -7.1797929305e-06 0.99999999995 2.0959539986e-05 -2.0842040586e-05 0.99999999956 
4.21968954e-05 -4.2267502556e-05 0.99999999822 6.9181506891e-05 -6.9015238207e-05 0.99999999523 0.00010488242045 0.00014065582095 0.99999998461 
0.00010568452615 0.00018275499449 0.99999997772 0.00010206415805 0.00022463363585 0.99999996956 8.6835605137e-05 0.00030228559588 0.99999995054 
7.6676570272e-05 0.00033596579961 0.99999994062 6.5231486182e-05 0.00036541151643 0.99999993111 4.0194489658e-05 0.00040956298029 0.99999991532 
2.7036789096e-05 0.00042352536249 0.99999990995 1.3381422948e-05 0.00043213592204 0.99999990654 -1.376658725e-05 0.00043194438603 0.99999990662 
-2.6876310521e-05 0.00042336315007 0.99999991002 -4.0397314617e-05 0.00040938844937 0.99999991538 -6.5538116554e-05 0.0003653408366 0.99999993112 
-7.6649824512e-05 0.00033605473271 0.9999999406 -8.6900480382e-05 0.00030244138022 0.99999995049 -0.00010192453807 0.00022482187924 0.99999996953 
-0.00010539456022 0.00018281180344 0.99999997774 -0.00010488084556 0.00014055780467 0.99999998462 0.0001405813763 0.00010489057517 0.99999998462 
0.00018280197878 0.00010537666462 0.99999997774 0.0002247607368 0.0001019105261 0.99999996955 0.00013596313834 0.0002809340435 0.9999999513 
0.00017833410468 0.00028444344051 0.99999994364 0.00022085391226 0.0002772546616 0.99999993718 7.6039792865e-05 0.00041570692841 0.9999999107 
0.00010040251141 0.00042269288186 0.99999990563 0.00012514307432 0.00041389837138 0.99999990651 -2.0359101818e-08 0.00046446510536 0.99999989214 
1.0896602557e-07 0.0004728440248 0.99999988821 6.1154653558e-08 0.00046370499129 0.99999989249 -7.6115256435e-05 0.00041581895005 0.99999991065 
-0.00010040918789 0.00042274921762 0.9999999056 -0.00012515721674 0.00041395605426 0.99999990649 -0.0001359136125 0.00028118866012 0.99999995123 
-0.0001782725964 0.00028449831791 0.99999994364 -0.0002208283386 0.00027736477418 0.99999993715 -0.00014068756008 0.00010484347822 0.99999998461 
-0.00018279417114 0.00010567434099 0.99999997771 -0.00022460857544 0.00010222953393 0.99999996955 0.00028107156128 0.00013591623072 0.99999995126 
0.00028457979472 0.00017829103198 0.99999994361 0.00027723047026 0.0002207483461 0.99999993721 0.00024013640881 0.00030063928805 0.99999992598 
0.00021332384813 0.00033573072267 0.99999992089 0.00018260061346 0.0003667179399 0.99999991609 0.00011348997975 0.0004134801505 0.99999990808 
7.6445992411e-05 0.00042835822003 0.99999990533 3.8424183662e-05 0.00043758560211 0.99999990352 -3.8455022185e-05 0.00043760116581 0.99999990351 
-7.6423687682e-05 0.00042840046597 0.99999990532 -0.00011365629629 0.00041345253396 0.99999990807 -0.0001826486325 0.00036673657332 0.99999991607 
-0.00021332946774 0.00033579073944 0.99999992087 -0.00024021328295 0.00030067107428 0.99999992595 -0.0002773142739 0.0002208183651 0.99999993717 
-0.00028443842364 0.00017837631996 0.99999994364 -0.00028092044592 0.00013596913074 0.9999999513 0.00030245829759 8.6922247218e-05 0.99999995048 
0.00033613332808 7.6514297476e-05 0.99999994058 0.0003652988254 6.5658988085e-05 0.99999993112 0.00030069886892 0.00024011238473 0.99999992596 
0.00033573497815 0.00021335482145 0.99999992088 0.00036676035868 0.00018262848152 0.99999991607 0.00017176827233 0.0003612343016 0.99999992 
0.00019239627904 0.00032191034831 0.99999992968 0.00021085062924 0.00027636842105 0.99999993958 7.421555214e-09 0.00040576133173 0.99999991768 
5.4886032306e-09 0.00036187280293 0.99999993452 6.3321744468e-09 0.00031099153709 0.99999995164 -0.00017175378966 0.00036124333233 0.99999992 
-0.00019238168428 0.00032192173941 0.99999992968 -0.00021083319396 0.00027637756566 0.99999993958 -0.00030061541021 0.00024015871864 0.99999992598 
-0.00033566572795 0.00021334113881 0.99999992091 -0.0003667318657 0.00018261298832 0.99999991608 -0.00030232728292 8.6782317559e-05 0.99999995053 
-0.00033595671202 7.6717810452e-05 0.99999994062 -0.00036534577799 6.5347949122e-05 0.99999993113 0.00041574310013 7.6067396923e-05 0.99999991069 
0.00042268113533 0.00010047543263 0.99999990562 0.0004138871852 0.00012514362778 0.99999990652 0.00036127167064 0.00017181088101 0.99999991998 
0.00032203823062 0.00019247288432 0.99999992962 0.00027638311154 0.00021079555891 0.99999993959 0.00017253398193 0.00023858991952 0.99999995665 
0.00011631294743 0.00024748681689 0.99999996261 5.852534197e-05 0.00025299711322 0.99999996628 -5.8510032215e-05 0.00025299899058 0.99999996628 
-0.00011629695664 0.00024749049475 0.99999996261 -0.00017251670627 0.00023859501017 0.99999995666 -0.00027636132138 0.00021079951125 0.99999993959 
-0.00032201199142 0.00019247174624 0.99999992963 -0.00036124498412 0.00017179750474 0.99999991999 -0.00041393777675 0.00012502580988 0.99999990651 
-0.0004228852946 0.00010042870926 0.99999990554 -0.00041569667431 7.6086361618e-05 0.9999999107 0.00040938266012 4.0384031629e-05 0.99999991539 
0.00042336479321 2.6858754123e-05 0.99999991002 0.0004319049148 1.3809647101e-05 0.99999990663 0.00041344883553 0.00011349751515 0.99999990809 
0.00042831648425 7.6460785017e-05 0.99999990535 0.00043759702718 3.8436228867e-05 0.99999990352 0.00023855573847 0.00017241249858 0.99999995668 
0.00024742865947 0.00011627402105 0.99999996263 0.00025300442318 5.851334818e-05 0.99999996628 8.3574277879e-09 0.00019427895595 0.99999998113 
9.0337211368e-09 0.0001310127179 0.99999999142 1.0146532182e-08 6.5968862614e-05 0.99999999782 -0.00023853840739 0.00017241394213 0.99999995669 
-0.00024741520357 0.0001162732085 0.99999996263 -0.00025299659925 5.8510676825e-05 0.99999996628 -0.00041344440756 0.0001134669091 0.99999990809 
-0.00042832173453 7.6437171033e-05 0.99999990535 -0.00043760821034 3.8411487151e-05 0.99999990351 -0.00040955216453 4.0130369538e-05 0.99999991533 
-0.00042348808629 2.7087254275e-05 0.99999990996 -0.00043204435373 1.3535113965e-05 0.99999990658 0.0004643061095 6.044623958e-08 0.99999989221 
0.00047314921628 -9.459509697e-08 0.99999988806 0.00046381996442 -5.6007097501e-08 0.99999989244 0.00040564343157 3.0992540579e-08 0.99999991773 
0.00036207710981 -6.6640487088e-08 0.99999993445 0.00031104091441 -6.5605041659e-09 0.99999995163 0.00019425145335 8.1328587211e-09 0.99999998113 
0.00013108612253 -2.4581892104e-08 0.99999999141 6.5992396897e-05 4.8153774686e-09 0.99999999782 -6.5966161942e-05 6.8656331667e-09 0.99999999782 
-0.0001310632733 3.7298756359e-09 0.99999999141 -0.0001942559517 1.2763628108e-08 0.99999998113 -0.0003110123824 -2.4295596066e-08 0.99999995164 
-0.00036205955313 -2.0056021135e-08 0.99999993446 -0.00040568631742 1.1739964499e-08 0.99999991771 -0.00046378418433 -8.8962932039e-08 0.99999989245 
-0.00047314403634 -3.5103536947e-08 0.99999988807 -0.00046434949733 1.0928536955e-07 0.99999989219 0.00043210207191 -1.3595266493e-05 0.99999990655 
0.00042347971453 -2.6974785906e-05 0.99999990997 0.00040951806861 -4.014490219e-05 0.99999991534 0.00043762512491 -3.8370231254e-05 0.99999990351 
0.00042832472583 -7.63306858e-05 0.99999990536 0.00041347005479 -0.00011349879044 0.99999990808 0.00025299831027 -5.8514343914e-05 0.99999996628 
0.000247462384 -0.00011617984873 0.99999996263 0.00023856989054 -0.0001724370089 0.99999995667 1.9703683774e-08 -6.5991665666e-05 0.99999999782 
-2.0839964561e-08 -0.00013100646255 0.99999999142 -1.425536752e-08 -0.00019425982166 0.99999998113 -0.0002529552877 -5.8559497924e-05 0.99999996629 
-0.00024746042252 -0.00011620188903 0.99999996263 -0.00023858047926 -0.00017239481632 0.99999995668 -0.00043758099107 -3.8413754333e-05 0.99999990352 
-0.0004283298167 -7.633755386e-05 0.99999990535 -0.00041347011491 -0.00011344305034 0.99999990809 -0.00043192253667 -1.3741354128e-05 0.99999990663 
-0.00042337964738 -2.678068901e-05 0.99999991002 -0.00040938457123 -4.0270367461e-05 0.99999991539 0.00041568279277 -7.6055996662e-05 0.99999991071 
0.00042273116957 -0.00010044265809 0.9999999056 0.00041398292955 -0.00012513853195 0.99999990648 0.00036113568379 -0.00017185593025 0.99999992002 
0.00032188110739 -0.00019246643376 0.99999992967 0.00027642926673 -0.0002108212451 0.99999993957 0.00017238946726 -0.00023867045764 0.99999995666 
0.00011622599917 -0.00024749112077 0.99999996262 5.8529686444e-05 -0.0002529781006 0.99999996629 -5.8489438629e-05 -0.00025300028232 0.99999996628 
-0.00011624032735 -0.00024748553204 0.99999996262 -0.00017230445931 -0.00023857529286 0.9999999567 -0.00027638045438 -0.00021083274176 0.99999993958 
-0.00032201269957 -0.00019249312272 0.99999992963 -0.00036113860891 -0.00017176896875 0.99999992004 -0.00041393317681 -0.00012519537777 0.99999990649 
-0.00042292808587 -0.00010054105934 0.99999990551 -0.00041575919008 -7.6022283705e-05 0.99999991068 0.00036538110277 -6.5191896484e-05 0.99999993112 
0.00033587855112 -7.6700700502e-05 0.99999994065 0.00030235095815 -8.6788888139e-05 0.99999995053 0.0003667356122 -0.00018257048297 0.99999991609 
0.00033569281322 -0.00021323975219 0.99999992092 0.00030062903058 -0.0002401430609 0.99999992598 0.00021081822483 -0.00027638800346 0.99999993958 
0.00019248764192 -0.00032182575603 0.99999992969 0.00017177757377 -0.0003612306788 0.99999992 4.8034668492e-08 -0.00031106290418 0.99999995162 
-6.3011656002e-08 -0.00036186570346 0.99999993453 -1.9246992161e-08 -0.0004056850219 0.99999991771 -0.00021079826617 -0.00027645640364 0.99999993957 
-0.00019250128996 -0.00032186592805 0.99999992967 -0.00017175247469 -0.00036119258505 0.99999992002 -0.00036673608149 -0.00018261798135 0.99999991608 
-0.00033573191615 -0.00021324905728 0.9999999209 -0.00030064039148 -0.00024008336767 0.99999992599 -0.00036531856706 -6.5502874838e-05 0.99999993113 
-0.00033608097695 -7.6563250132e-05 0.99999994059 -0.00030246306602 -8.6821412541e-05 0.99999995049 0.00028099835639 -0.00013589689437 0.99999995129 
0.00028439510225 -0.00017830302497 0.99999994366 0.00027727372617 -0.00022088327406 0.99999993716 0.00024007289876 -0.00030073610779 0.99999992596 
0.00021325565067 -0.00033573959609 0.9999999209 0.00018261428682 -0.00036674817618 0.99999991607 0.00011347028129 -0.00041357660669 0.99999990804 